(written by ASE)

2 atoms
1 atom types

0.0      2.5243712088359747  xlo xhi
0.0      2.1861695954339861  ylo yhi
0.0      2.0611404610069637  zlo zhi
     1.2621856044179873      1.2621856044179873      0.7287231984779956  xy xz yz

Atoms # atomic

     1   1                       0                       0                       0
     2   1      1.2621856044179871      0.7287231984779956     0.51528511525174103
